 DBCSR| CPU Multiplication driver                                           XSMM (U)
 DBCSR| Multrec recursion limit                                              512 (U)
 DBCSR| Multiplication stack size                                           1000 (D)
 DBCSR| Maximum elements for images                                    UNLIMITED (U)
 DBCSR| Multiplicative factor virtual images                                   1 (U)
 DBCSR| Use multiplication densification                                       T (D)
 DBCSR| Multiplication size stacks                                             3 (U)
 DBCSR| Use memory pool for CPU allocation                                     F (U)
 DBCSR| Number of 3D layers                                               SINGLE (U)
 DBCSR| Use MPI memory allocation                                              F (U)
 DBCSR| Use RMA algorithm                                                      F (U)
 DBCSR| Use Communication thread                                               T (U)
 DBCSR| Communication thread load                                             87 (D)
 DBCSR| MPI: My process id                                                     0
 DBCSR| MPI: Number of processes                                              16
 DBCSR| OMP: Current number of threads                                         1
 DBCSR| OMP: Max number of threads                                             1
 DBCSR| Split modifier for TAS multiplication algorithm                  1.0E+00 (U)


  **** **** ******  **  PROGRAM STARTED AT               2024-11-28 11:29:38.702
 ***** ** ***  *** **   PROGRAM STARTED ON            s92node03.psmn.ens-lyon.fr
 **    ****   ******    PROGRAM STARTED BY                               rrullan
 ***** **    ** ** **   PROGRAM PROCESS ID                               1131934
  **** **  *******  **  PROGRAM STARTED IN                   /tmp/tmp.5EnW8u1H25

 CP2K| version string:                                       CP2K version 2023.2
 CP2K| source code revision number:                                  git:65cca6c
 CP2K| cp2kflags: omp libint fftw3 libxc elpa parallel mpi_f08 scalapack cosma x
 CP2K|            smm plumed2 spglib sirius libvori libbqb libvdwxc
 CP2K| is freely available from                            https://www.cp2k.org/
 CP2K| Program compiled at                       Tue 12 Dec 2023 10:54:06 AM CET
 CP2K| Program compiled on                          cl6242comp2.psmn.ens-lyon.fr
 CP2K| Program compiled for                                                local
 CP2K| Data directory path                /Xnfs/chimie/debian11/cp2k/2023.2/data
 CP2K| Input file name                                             TDDFT_PBE.inp

 GLOBAL| Force Environment number                                              1
 GLOBAL| Basis set file name                                        BASIS_MOLOPT
 GLOBAL| Potential file name                                      GTH_POTENTIALS
 GLOBAL| MM Potential file name                                     MM_POTENTIAL
 GLOBAL| Coordinate file name                                         sulfur.xyz
 GLOBAL| Method name                                                        CP2K
 GLOBAL| Project name                                          fcenter_tddft_pbe
 GLOBAL| Run type                                                         ENERGY
 GLOBAL| FFT library                                                       FFTW3
 GLOBAL| Diagonalization library                                            ELPA
 GLOBAL| DGEMM library                                                      BLAS
 GLOBAL| Minimum number of eigenvectors for ELPA usage                        16
 GLOBAL| Orthonormality check for eigenvectors                          DISABLED
 GLOBAL| Matrix multiplication library                                     COSMA
 GLOBAL| All-to-all communication in single precision                          F
 GLOBAL| FFTs using library dependent lengths                                  F
 GLOBAL| Grid backend                                                       AUTO
 GLOBAL| Global print level                                                 HIGH
 GLOBAL| MPI I/O enabled                                                       T
 GLOBAL| Total number of message passing processes                            16
 GLOBAL| Number of threads for this process                                    1
 GLOBAL| This output is from process                                           0
 GLOBAL| Stack size for threads created by OpenMP (OMP_STACKSIZE)        default
 GLOBAL| CPU model name             Intel(R) Xeon(R) Platinum 9242 CPU @ 2.30GHz
 GLOBAL| CPUID                                                              1003
 GLOBAL| Compiled for CPUID                                                    0

 *** HINT in environment.F:904 :: The compiler target flags (generic) used ***
 *** to build this binary cannot exploit all extensions of this CPU model  ***
 *** (x86_avx512). Consider compiler target flags as part of FCFLAGS and   ***
 *** CFLAGS (ARCH file).                                                   ***


 MEMORY| system memory details [Kb]
 MEMORY|                        rank 0           min           max       average
 MEMORY| MemTotal            394878248     394878248     394878248     394878248
 MEMORY| MemFree             386753512     386753512     386753512     386753512
 MEMORY| Buffers                     0             0             0             0
 MEMORY| Cached                1754448       1754448       1754448       1754448
 MEMORY| Slab                   933180        933180        933180        933180
 MEMORY| SReclaimable           214748        214748        214748        214748
 MEMORY| MemLikelyFree       388722708     388722708     388722708     388722708


 *** Fundamental physical constants (SI units) ***

 *** Literature: B. J. Mohr and B. N. Taylor,
 ***             CODATA recommended values of the fundamental physical
 ***             constants: 2006, Web Version 5.1
 ***             http://physics.nist.gov/constants

 Speed of light in vacuum [m/s]                             2.99792458000000E+08
 Magnetic constant or permeability of vacuum [N/A**2]       1.25663706143592E-06
 Electric constant or permittivity of vacuum [F/m]          8.85418781762039E-12
 Planck constant (h) [J*s]                                  6.62606896000000E-34
 Planck constant (h-bar) [J*s]                              1.05457162825177E-34
 Elementary charge [C]                                      1.60217648700000E-19
 Electron mass [kg]                                         9.10938215000000E-31
 Electron g factor [ ]                                     -2.00231930436220E+00
 Proton mass [kg]                                           1.67262163700000E-27
 Fine-structure constant                                    7.29735253760000E-03
 Rydberg constant [1/m]                                     1.09737315685270E+07
 Avogadro constant [1/mol]                                  6.02214179000000E+23
 Boltzmann constant [J/K]                                   1.38065040000000E-23
 Atomic mass unit [kg]                                      1.66053878200000E-27
 Bohr radius [m]                                            5.29177208590000E-11

 *** Conversion factors ***

 [u] -> [a.u.]                                              1.82288848426455E+03
 [Angstrom] -> [Bohr] = [a.u.]                              1.88972613288564E+00
 [a.u.] = [Bohr] -> [Angstrom]                              5.29177208590000E-01
 [a.u.] -> [s]                                              2.41888432650478E-17
 [a.u.] -> [fs]                                             2.41888432650478E-02
 [a.u.] -> [J]                                              4.35974393937059E-18
 [a.u.] -> [N]                                              8.23872205491840E-08
 [a.u.] -> [K]                                              3.15774647902944E+05
 [a.u.] -> [kJ/mol]                                         2.62549961709828E+03
 [a.u.] -> [kcal/mol]                                       6.27509468713739E+02
 [a.u.] -> [Pa]                                             2.94210107994716E+13
 [a.u.] -> [bar]                                            2.94210107994716E+08
 [a.u.] -> [atm]                                            2.90362800883016E+08
 [a.u.] -> [eV]                                             2.72113838565563E+01
 [a.u.] -> [Hz]                                             6.57968392072181E+15
 [a.u.] -> [1/cm] (wave numbers)                            2.19474631370540E+05
 [a.u./Bohr**2] -> [1/cm]                                   5.14048714338585E+03
 

 CELL_TOP| Volume [angstrom^3]:                                      5503.758399
 CELL_TOP| Vector a [angstrom    17.656     0.000     0.000   |a| =    17.655762
 CELL_TOP| Vector b [angstrom     0.000    17.656     0.000   |b| =    17.655762
 CELL_TOP| Vector c [angstrom     0.000     0.000    17.656   |c| =    17.655762
 CELL_TOP| Angle (b,c), alpha [degree]:                                90.000000
 CELL_TOP| Angle (a,c), beta  [degree]:                                90.000000
 CELL_TOP| Angle (a,b), gamma [degree]:                                90.000000
 CELL_TOP| Numerically orthorhombic:                                         YES
 CELL_TOP| Periodicity                                                       XYZ


 SUBCELL GRID  INFO FOR THE NONBONDED NEIGHBOR LISTS

    NUMBER OF SUBCELLS             ::                   6         6         6
    NUMBER OF PERIODIC      IMAGES ::                   1         1         1
    NUMBER OF INTERACTING SUBCELLS ::                   2         2         2

 GENERATE|  Preliminary Number of Bonds generated:                             0
 GENERATE|  Achieved consistency in connectivity generation.

 CELL| Volume [angstrom^3]:                                          5503.758399
 CELL| Vector a [angstrom]:      17.656     0.000     0.000   |a| =    17.655762
 CELL| Vector b [angstrom]:       0.000    17.656     0.000   |b| =    17.655762
 CELL| Vector c [angstrom]:       0.000     0.000    17.656   |c| =    17.655762
 CELL| Angle (b,c), alpha [degree]:                                    90.000000
 CELL| Angle (a,c), beta  [degree]:                                    90.000000
 CELL| Angle (a,b), gamma [degree]:                                    90.000000
 CELL| Numerically orthorhombic:                                             YES
 CELL| Periodicity                                                           XYZ

 CELL_REF| Volume [angstrom^3]:                                      5503.758399
 CELL_REF| Vector a [angstrom    17.656     0.000     0.000   |a| =    17.655762
 CELL_REF| Vector b [angstrom     0.000    17.656     0.000   |b| =    17.655762
 CELL_REF| Vector c [angstrom     0.000     0.000    17.656   |c| =    17.655762
 CELL_REF| Angle (b,c), alpha [degree]:                                90.000000
 CELL_REF| Angle (a,c), beta  [degree]:                                90.000000
 CELL_REF| Angle (a,b), gamma [degree]:                                90.000000
 CELL_REF| Numerically orthorhombic:                                         YES
 CELL_REF| Periodicity                                                       XYZ

 *******************************************************************************
 *******************************************************************************
 **                                                                           **
 **     #####                         ##              ##                      **
 **    ##   ##            ##          ##              ##                      **
 **   ##     ##                       ##            ######                    **
 **   ##     ##  ##   ##  ##   #####  ##  ##   ####   ##    #####    #####    **
 **   ##     ##  ##   ##  ##  ##      ## ##   ##      ##   ##   ##  ##   ##   **
 **   ##  ## ##  ##   ##  ##  ##      ####     ###    ##   ######   ######    **
 **    ##  ###   ##   ##  ##  ##      ## ##      ##   ##   ##       ##        **
 **     #######   #####   ##   #####  ##  ##  ####    ##    #####   ##        **
 **           ##                                                    ##        **
 **                                                                           **
 **                                                ... make the atoms dance   **
 **                                                                           **
 **            Copyright (C) by CP2K developers group (2000-2023)             **
 **                      J. Chem. Phys. 152, 194103 (2020)                    **
 **                                                                           **
 *******************************************************************************

 RADII: ORBITAL BASIS in angstrom            Kind   Label     Radius  OCE Radius
                                                1   NA2     8.806059    8.806059
                                                2   NA      8.806059    8.806059
                                                3   SI      6.374793    6.374793
                                                4   AL      6.793608    6.793608
                                                5   CL      4.680469    4.680469
                                                6   O       4.507742    4.507742

 RADII: SHELL SETS OF ORBITAL BASIS in angstrom   Kind  Label   Set       Radius
                                                     1  NA2       1     8.806059
                                                     2  NA        1     8.806059
                                                     3  SI        1     6.374793
                                                     4  AL        1     6.793608
                                                     5  CL        1     4.680469
                                                     6  O         1     4.507742

 RADII: PRIMITIVE GAUSSIANS OF ORBITAL BASIS in anKindomLabel   Set       Radius
                                                     1  NA2       1     2.261721
                                                                        5.999286
                                                                        8.806059
                                                     2  NA        1     2.261721
                                                                        5.999286
                                                                        8.806059
                                                     3  SI        1     1.734084
                                                                        2.755895
                                                                        3.922852
                                                                        6.374793
                                                     4  AL        1     1.819856
                                                                        2.950938
                                                                        4.128288
                                                                        6.793608
                                                     5  CL        1     1.246432
                                                                        1.651250
                                                                        2.954868
                                                                        4.680469
                                                     6  O         1     0.600974
                                                                        0.986050
                                                                        1.751928
                                                                        2.868746
                                                                        4.507742

 RADII: AUXILLIARY BASIS in angstrom         Kind   Label     Radius  OCE Radius
                                                          1   NA2       no basis
                                                          2   NA        no basis
                                                          3   SI        no basis
                                                          4   AL        no basis
                                                          5   CL        no basis
                                                          6   O         no basis

 RADII: SHELL SETS OF AUXILLIARY BASIS in angstromKind  Label   Set       Radius
                                                     1   NA2            no basis
                                                     2   NA             no basis
                                                     3   SI             no basis
                                                     4   AL             no basis
                                                     5   CL             no basis
                                                     6   O              no basis

 RADII: PRIMITIVE GAUSSIANS OF AUXILLIARY BASIS inKindstLabel   Set       Radius
                                                     1   NA2            no basis
                                                     2   NA             no basis
                                                     3   SI             no basis
                                                     4   AL             no basis
                                                     5   CL             no basis
                                                     6   O              no basis

 RADII: LOCAL RI BASIS in angstrom           Kind   Label     Radius  OCE Radius
                                                          1   NA2       no basis
                                                          2   NA        no basis
                                                          3   SI        no basis
                                                          4   AL        no basis
                                                          5   CL        no basis
                                                          6   O         no basis

 RADII: SHELL SETS OF LOCAL RI BASIS in angstrom  Kind  Label   Set       Radius
                                                     1   NA2            no basis
                                                     2   NA             no basis
                                                     3   SI             no basis
                                                     4   AL             no basis
                                                     5   CL             no basis
                                                     6   O              no basis

 RADII: PRIMITIVE GAUSSIANS OF LOCAL RI BASIS in aKindroLabel   Set       Radius
                                                     1   NA2            no basis
                                                     2   NA             no basis
                                                     3   SI             no basis
                                                     4   AL             no basis
                                                     5   CL             no basis
                                                     6   O              no basis

 RADII: CORE CHARGE DISTRIBUTIONS in angstrom          Kind   Label       Radius
                                                          1   NA2       2.718282
                                                          2   NA        2.718282
                                                          3   SI        1.764766
                                                          4   AL        1.793683
                                                          5   CL        1.666378
                                                          6   O         1.017201

 RADII: LOCAL PART OF GTH/ELP PP in angstrom           Kind   Label       Radius
                                                          1   NA2       1.281505
                                                          2   NA        1.281505
                                                          3   SI        0.835680
                                                          4   AL        0.866959
                                                          5   CL        0.780406
                                                          6   O         0.528197

 RADII: NON-LOCAL PART OF GTH PP in angstrom           Kind   Label       Radius
                                                          1   NA2       2.446997
                                                          2   NA        2.446997
                                                          3   SI        1.416286
                                                          4   AL        1.588550
                                                          5   CL        1.092245
                                                          6   O         0.622773

 RADII: ONE CENTER PROJECTORS in angstrom              Kind   Label       Radius

 DISTRIBUTION OF THE MOLECULES                    Process    Number of molecules
                                                        0                     23
                                                        1                     22
                                                        2                     23
                                                        3                     23
                                                        4                     23
                                                        5                     23
                                                        6                     23
                                                        7                     23
                                                        8                     23
                                                        9                     23
                                                       10                     23
                                                       11                     23
                                                       12                     23
                                                       13                     23
                                                       14                     23
                                                       15                     23
                                                      Sum                    367

  Process   Kind   Local molecules (global indices)
        0      1         1
               2
               3
               4
               5
               6
               7
               8
               9
              10
              11
              12
              13
              14
              15
              16
              17
              18
              19
              20
              21        21
              22
              23
              24
              25
              26
              27
              28
              29
              30
              31
              32
              33
              34
              35
              36
              37
              38
              39
              40        40
              41
              42
              43
              44
              45
              46
              47
              48
              49
              50        50
              51
              52
              53
              54
              55
              56
              57
              58
              59
              60
              61
              62
              63
              64
              65
              66
              67
              68        68
              69
              70
              71
              72
              73
              74
              75
              76
              77
              78
              79
              80
              81
              82
              83        83
              84
              85
              86
              87
              88
              89
              90
              91
              92
              93
              94
              95
              96
              97
              98
              99
             100
             101
             102       102
             103
             104
             105
             106
             107
             108
             109
             110
             111
             112
             113
             114
             115
             116
             117
             118
             119
             120
             121       121
             122
             123
             124
             125
             126
             127
             128
             129
             130
             131
             132
             133
             134
             135
             136
             137
             138
             139
             140       140
             141
             142
             143
             144
             145
             146
             147
             148
             149
             150
             151
             152
             153
             154
             155
             156
             157
             158
             159       159
             160
             161
             162
             163
             164
             165
             166
             167
             168
             169
             170       170
             171
             172
             173
             174
             175
             176
             177
             178
             179
             180
             181
             182
             183
             184
             185
             186
             187
             188
             189       189
             190
             191
             192
             193
             194
             195
             196
             197
             198
             199
             200
             201
             202
             203
             204
             205
             206
             207
             208       208
             209       209
             210
             211
             212
             213
             214
             215
             216
             217
             218
             219
             220
             221
             222
             223
             224
             225
             226
             227
             228
             229       229
             230
             231
             232
             233
             234
             235
             236
             237
             238
             239
             240
             241
             242
             243
             244
             245
             246
             247
             248       248
             249
             250
             251
             252
             253
             254
             255
             256
             257
             258       258
             259
             260
             261
             262
             263
             264
             265
             266
             267
             268
             269
             270
             271
             272
             273
             274
             275
             276       276
             277
             278
             279
             280
             281
             282
             283
             284
             285
             286
             287
             288
             289
             290
             291       291
             292
             293
             294
             295
             296
             297
             298
             299
             300
             301
             302
             303
             304
             305
             306
             307
             308
             309
             310       310
             311
             312
             313
             314
             315
             316
             317
             318
             319
             320
             321
             322
             323
             324
             325
             326
             327
             328
             329       329
             330
             331
             332
             333
             334
             335
             336
             337
             338
             339
             340
             341
             342
             343
             344
             345
             346
             347
             348       348
             349
             350
             351
             352
             353
             354
             355
             356
             357
             358
             359
             360
             361
             362
             363
             364
             365
             366
             367       367

 DISTRIBUTION OF THE PARTICLES                    Process    Number of particles
                                                        0                     23
                                                        1                     22
                                                        2                     23
                                                        3                     23
                                                        4                     23
                                                        5                     23
                                                        6                     23
                                                        7                     23
                                                        8                     23
                                                        9                     23
                                                       10                     23
                                                       11                     23
                                                       12                     23
                                                       13                     23
                                                       14                     23
                                                       15                     23
                                                      Sum                    367

  Process   Kind   Local particles (global indices)
        0      1        1
               2       21    40    50
               3       68    83   102
               4      121   140   159
               5      170
               6      189   208   209   229   248   258   276   291   310   329
                      348   367

 DFT| Spin unrestricted (spin-polarized) Kohn-Sham calculation               UKS
 DFT| Multiplicity                                                             2
 DFT| Number of spin states                                                    2
 DFT| Charge                                                                   0
 DFT| Self-interaction correction (SIC)                                       NO
 DFT| Cutoffs: density                                              1.000000E-10
 DFT|          gradient                                             1.000000E-10
 DFT|          tau                                                  1.000000E-10
 DFT|          cutoff_smoothing_range                               0.000000E+00
 DFT| XC density smoothing                                                  NONE
 DFT| XC derivatives                                                          PW

 FUNCTIONAL| PBE:
 FUNCTIONAL| J.P.Perdew, K.Burke, M.Ernzerhof, Phys. Rev. Letter, vol. 77, n 18,
 FUNCTIONAL|  pp. 3865-3868, (1996)sx=0.750sc=1.000{spin polarized}             


 QS| Method:                                                                 GPW
 QS| Density plane wave grid type                        NON-SPHERICAL FULLSPACE
 QS| Number of grid levels:                                                    5
 QS| Density cutoff [a.u.]:                                                200.0
 QS| Using commensurate multigrids
 QS| Multi grid cutoff [a.u.]: 1) grid level                               200.0
 QS|                           2) grid level                                50.0
 QS|                           3) grid level                                12.5
 QS|                           4) grid level                                 3.1
 QS|                           5) grid level                                 0.8
 QS| Grid level progression factor:                                          4.0
 QS| Relative density cutoff [a.u.]:                                        25.0
 QS| Interaction thresholds: eps_pgf_orb:                                1.0E-05
 QS|                         eps_filter_matrix:                          0.0E+00
 QS|                         eps_core_charge:                            1.0E-12
 QS|                         eps_rho_gspace:                             1.0E-10
 QS|                         eps_rho_rspace:                             1.0E-10
 QS|                         eps_gvg_rspace:                             1.0E-05
 QS|                         eps_ppl:                                    1.0E-02
 QS|                         eps_ppnl:                                   1.0E-07


 ATOMIC KIND INFORMATION

  1. Atomic kind: NA2                                   Number of atoms:       4

     Orbital Basis Set                                    DZVP-MOLOPT-PBE-GTH-q1

       Number of orbital shell sets:                                           1
       Number of orbital shells:                                               3
       Number of primitive Cartesian functions:                                3
       Number of Cartesian basis functions:                                    5
       Number of spherical basis functions:                                    5
       Norm type:                                                              2

       Normalised Cartesian orbitals:

                        Set   Shell   Orbital            Exponent    Coefficient

                          1       1    2s                0.559373       0.564929
                                                         0.084016      -0.221968
                                                         0.037028       0.095810

                          1       2    3s                0.559373      -0.149042
                                                         0.084016       0.043105
                                                         0.037028       0.044186

                          1       3    3px               0.559373      -0.048655
                                                         0.084016       0.032763
                                                         0.037028       0.012950
                          1       3    3py               0.559373      -0.048655
                                                         0.084016       0.032763
                                                         0.037028       0.012950
                          1       3    3pz               0.559373      -0.048655
                                                         0.084016       0.032763
                                                         0.037028       0.012950

     Auxiliary Fit Basis Set                                               cFIT3

       Number of orbital shell sets:                                           4
       Number of orbital shells:                                               5
       Number of primitive Cartesian functions:                                8
       Number of Cartesian basis functions:                                    9
       Number of spherical basis functions:                                    9
       Norm type:                                                              2

       Normalised Cartesian orbitals:

                        Set   Shell   Orbital            Exponent    Coefficient

                          1       1    1s                0.039180       0.062764

                          2       1    1s                0.607790       0.176010
                                                         1.872000       0.569097
                                                        14.679030       1.779420

                          2       2    2s                0.607790       0.181167
                                                         1.872000       0.579043
                                                        14.679030       1.640705

                          3       1    1px               0.488870       0.582682
                          3       1    1py               0.488870       0.582682
                          3       1    1pz               0.488870       0.582682

                          4       1    1px               1.638770       1.660338
                                                         5.161620       4.424293
                                                        17.775840       6.082765
                          4       1    1py               1.638770       1.660338
                                                         5.161620       4.424293
                                                        17.775840       6.082765
                          4       1    1pz               1.638770       1.660338
                                                         5.161620       4.424293
                                                        17.775840       6.082765

       Atomic covalent radius [Angstrom]:                                  1.540

       Atomic van der Waals radius [Angstrom]:                             2.270

     GTH Potential information for                                    GTH-PBE-q1

       Description:                       Goedecker-Teter-Hutter pseudopotential
                                           Goedecker et al., PRB 54, 1703 (1996)
                                          Hartwigsen et al., PRB 58, 3641 (1998)
                                                      Krack, TCA 114, 145 (2005)

       Gaussian exponent of the core charge distribution:               0.980988
       Electronic configuration (s p d ...):                                   1

       Parameters of the local part of the GTH pseudopotential:

                          rloc        C1          C2          C3          C4
                        0.713926   -3.151645

       Parameters of the non-local part of the GTH pseudopotential:

                   l      r(l)      h(i,j,l)

                   0    0.760129    1.912609   -0.167203
                                   -0.167203    0.215859
                   1    0.888469    0.509299

  2. Atomic kind: NA                                    Number of atoms:      60

     Orbital Basis Set                                    DZVP-MOLOPT-PBE-GTH-q1

       Number of orbital shell sets:                                           1
       Number of orbital shells:                                               3
       Number of primitive Cartesian functions:                                3
       Number of Cartesian basis functions:                                    5
       Number of spherical basis functions:                                    5
       Norm type:                                                              2

       Normalised Cartesian orbitals:

                        Set   Shell   Orbital            Exponent    Coefficient

                          1       1    2s                0.559373       0.564929
                                                         0.084016      -0.221968
                                                         0.037028       0.095810

                          1       2    3s                0.559373      -0.149042
                                                         0.084016       0.043105
                                                         0.037028       0.044186

                          1       3    3px               0.559373      -0.048655
                                                         0.084016       0.032763
                                                         0.037028       0.012950
                          1       3    3py               0.559373      -0.048655
                                                         0.084016       0.032763
                                                         0.037028       0.012950
                          1       3    3pz               0.559373      -0.048655
                                                         0.084016       0.032763
                                                         0.037028       0.012950

     Auxiliary Fit Basis Set                                               cFIT3

       Number of orbital shell sets:                                           4
       Number of orbital shells:                                               5
       Number of primitive Cartesian functions:                                8
       Number of Cartesian basis functions:                                    9
       Number of spherical basis functions:                                    9
       Norm type:                                                              2

       Normalised Cartesian orbitals:

                        Set   Shell   Orbital            Exponent    Coefficient

                          1       1    1s                0.039180       0.062764

                          2       1    1s                0.607790       0.176010
                                                         1.872000       0.569097
                                                        14.679030       1.779420

                          2       2    2s                0.607790       0.181167
                                                         1.872000       0.579043
                                                        14.679030       1.640705

                          3       1    1px               0.488870       0.582682
                          3       1    1py               0.488870       0.582682
                          3       1    1pz               0.488870       0.582682

                          4       1    1px               1.638770       1.660338
                                                         5.161620       4.424293
                                                        17.775840       6.082765
                          4       1    1py               1.638770       1.660338
                                                         5.161620       4.424293
                                                        17.775840       6.082765
                          4       1    1pz               1.638770       1.660338
                                                         5.161620       4.424293
                                                        17.775840       6.082765

       Atomic covalent radius [Angstrom]:                                  1.540

       Atomic van der Waals radius [Angstrom]:                             2.270

     GTH Potential information for                                    GTH-PBE-q1

       Description:                       Goedecker-Teter-Hutter pseudopotential
                                           Goedecker et al., PRB 54, 1703 (1996)
                                          Hartwigsen et al., PRB 58, 3641 (1998)
                                                      Krack, TCA 114, 145 (2005)

       Gaussian exponent of the core charge distribution:               0.980988
       Electronic configuration (s p d ...):                                   1

       Parameters of the local part of the GTH pseudopotential:

                          rloc        C1          C2          C3          C4
                        0.713926   -3.151645

       Parameters of the non-local part of the GTH pseudopotential:

                   l      r(l)      h(i,j,l)

                   0    0.760129    1.912609   -0.167203
                                   -0.167203    0.215859
                   1    0.888469    0.509299

  3. Atomic kind: SI                                    Number of atoms:      48

     Orbital Basis Set                                        DZVP-MOLOPT-SR-GTH

       Number of orbital shell sets:                                           1
       Number of orbital shells:                                               5
       Number of primitive Cartesian functions:                                4
       Number of Cartesian basis functions:                                   14
       Number of spherical basis functions:                                   13
       Norm type:                                                              2

       Normalised Cartesian orbitals:

                        Set   Shell   Orbital            Exponent    Coefficient

                          1       1    2s                1.256768       0.294045
                                                         0.506394      -0.015884
                                                         0.238884      -0.207657
                                                         0.087337      -0.036225

                          1       2    3s                1.256768      -1.532347
                                                         0.506394       0.524539
                                                         0.238884       0.025013
                                                         0.087337      -0.052203

                          1       3    3px               1.256768       0.152274
                                                         0.506394      -0.154145
                                                         0.238884      -0.115581
                                                         0.087337      -0.028372
                          1       3    3py               1.256768       0.152274
                                                         0.506394      -0.154145
                                                         0.238884      -0.115581
                                                         0.087337      -0.028372
                          1       3    3pz               1.256768       0.152274
                                                         0.506394      -0.154145
                                                         0.238884      -0.115581
                                                         0.087337      -0.028372

                          1       4    4px               1.256768       0.313378
                                                         0.506394      -0.415360
                                                         0.238884      -0.022539
                                                         0.087337       0.078473
                          1       4    4py               1.256768       0.313378
                                                         0.506394      -0.415360
                                                         0.238884      -0.022539
                                                         0.087337       0.078473
                          1       4    4pz               1.256768       0.313378
                                                         0.506394      -0.415360
                                                         0.238884      -0.022539
                                                         0.087337       0.078473

                          1       5    4dx2              1.256768       0.325879
                                                         0.506394       0.163831
                                                         0.238884       0.044076
                                                         0.087337       0.010608
                          1       5    4dxy              1.256768       0.564439
                                                         0.506394       0.283764
                                                         0.238884       0.076342
                                                         0.087337       0.018373
                          1       5    4dxz              1.256768       0.564439
                                                         0.506394       0.283764
                                                         0.238884       0.076342
                                                         0.087337       0.018373
                          1       5    4dy2              1.256768       0.325879
                                                         0.506394       0.163831
                                                         0.238884       0.044076
                                                         0.087337       0.010608
                          1       5    4dyz              1.256768       0.564439
                                                         0.506394       0.283764
                                                         0.238884       0.076342
                                                         0.087337       0.018373
                          1       5    4dz2              1.256768       0.325879
                                                         0.506394       0.163831
                                                         0.238884       0.044076
                                                         0.087337       0.010608

     Auxiliary Fit Basis Set                                               cFIT3

       Number of orbital shell sets:                                           4
       Number of orbital shells:                                               4
       Number of primitive Cartesian functions:                                6
       Number of Cartesian basis functions:                                    8
       Number of spherical basis functions:                                    8
       Norm type:                                                              2

       Normalised Cartesian orbitals:

                        Set   Shell   Orbital            Exponent    Coefficient

                          1       1    1s                0.096480       0.123378

                          2       1    1s                0.246960      -0.309315
                                                         1.277560       0.429908

                          3       1    1px               0.089490       0.069768
                          3       1    1py               0.089490       0.069768
                          3       1    1pz               0.089490       0.069768

                          4       1    1px               0.295630       0.313983
                                                         2.202470      -0.124968
                          4       1    1py               0.295630       0.313983
                                                         2.202470      -0.124968
                          4       1    1pz               0.295630       0.313983
                                                         2.202470      -0.124968

       Atomic covalent radius [Angstrom]:                                  1.110

       Atomic van der Waals radius [Angstrom]:                             2.100

     GTH Potential information for                                    GTH-PBE-q4

       Description:                       Goedecker-Teter-Hutter pseudopotential
                                           Goedecker et al., PRB 54, 1703 (1996)
                                          Hartwigsen et al., PRB 58, 3641 (1998)
                                                      Krack, TCA 114, 145 (2005)

       Gaussian exponent of the core charge distribution:               2.582645
       Electronic configuration (s p d ...):                               2   2

       Parameters of the local part of the GTH pseudopotential:

                          rloc        C1          C2          C3          C4
                        0.440000   -6.269288

       Parameters of the non-local part of the GTH pseudopotential:

                   l      r(l)      h(i,j,l)

                   0    0.435634    8.951742   -2.706271
                                   -2.706271    3.493781
                   1    0.497942    2.431277

  4. Atomic kind: AL                                    Number of atoms:      48

     Orbital Basis Set                                        DZVP-MOLOPT-SR-GTH

       Number of orbital shell sets:                                           1
       Number of orbital shells:                                               5
       Number of primitive Cartesian functions:                                4
       Number of Cartesian basis functions:                                   14
       Number of spherical basis functions:                                   13
       Norm type:                                                              2

       Normalised Cartesian orbitals:

                        Set   Shell   Orbital            Exponent    Coefficient

                          1       1    2s                1.212902       0.147703
                                                         0.454181       0.176942
                                                         0.242419      -0.255412
                                                         0.078268      -0.047918

                          1       2    3s                1.212902      -0.205401
                                                         0.454181      -0.282784
                                                         0.242419       0.451246
                                                         0.078268      -0.188270

                          1       3    3px               1.212902       0.054477
                                                         0.454181       0.028713
                                                         0.242419      -0.164201
                                                         0.078268      -0.027375
                          1       3    3py               1.212902       0.054477
                                                         0.454181       0.028713
                                                         0.242419      -0.164201
                                                         0.078268      -0.027375
                          1       3    3pz               1.212902       0.054477
                                                         0.454181       0.028713
                                                         0.242419      -0.164201
                                                         0.078268      -0.027375

                          1       4    4px               1.212902      -0.161995
                                                         0.454181       0.034524
                                                         0.242419       0.284421
                                                         0.078268      -0.077718
                          1       4    4py               1.212902      -0.161995
                                                         0.454181       0.034524
                                                         0.242419       0.284421
                                                         0.078268      -0.077718
                          1       4    4pz               1.212902      -0.161995
                                                         0.454181       0.034524
                                                         0.242419       0.284421
                                                         0.078268      -0.077718

                          1       5    4dx2              1.212902       0.283929
                                                         0.454181       0.086552
                                                         0.242419       0.083045
                                                         0.078268       0.004803
                          1       5    4dxy              1.212902       0.491779
                                                         0.454181       0.149912
                                                         0.242419       0.143839
                                                         0.078268       0.008319
                          1       5    4dxz              1.212902       0.491779
                                                         0.454181       0.149912
                                                         0.242419       0.143839
                                                         0.078268       0.008319
                          1       5    4dy2              1.212902       0.283929
                                                         0.454181       0.086552
                                                         0.242419       0.083045
                                                         0.078268       0.004803
                          1       5    4dyz              1.212902       0.491779
                                                         0.454181       0.149912
                                                         0.242419       0.143839
                                                         0.078268       0.008319
                          1       5    4dz2              1.212902       0.283929
                                                         0.454181       0.086552
                                                         0.242419       0.083045
                                                         0.078268       0.004803

     Auxiliary Fit Basis Set                                               cFIT3

       Number of orbital shell sets:                                           4
       Number of orbital shells:                                               4
       Number of primitive Cartesian functions:                                6
       Number of Cartesian basis functions:                                    8
       Number of spherical basis functions:                                    8
       Norm type:                                                              2

       Normalised Cartesian orbitals:

                        Set   Shell   Orbital            Exponent    Coefficient

                          1       1    1s                0.062100       0.088660

                          2       1    1s                0.168020      -0.220468
                                                         0.996810       0.277240

                          3       1    1px               0.049280       0.033096
                          3       1    1py               0.049280       0.033096
                          3       1    1pz               0.049280       0.033096

                          4       1    1px               0.186200       0.174929
                                                         1.360020      -0.020711
                          4       1    1py               0.186200       0.174929
                                                         1.360020      -0.020711
                          4       1    1pz               0.186200       0.174929
                                                         1.360020      -0.020711

       Atomic covalent radius [Angstrom]:                                  1.180

       Atomic van der Waals radius [Angstrom]:                             1.840

     GTH Potential information for                                    GTH-PBE-q3

       Description:                       Goedecker-Teter-Hutter pseudopotential
                                           Goedecker et al., PRB 54, 1703 (1996)
                                          Hartwigsen et al., PRB 58, 3641 (1998)
                                                      Krack, TCA 114, 145 (2005)

       Gaussian exponent of the core charge distribution:               2.469136
       Electronic configuration (s p d ...):                               2   1

       Parameters of the local part of the GTH pseudopotential:

                          rloc        C1          C2          C3          C4
                        0.450000   -7.554761

       Parameters of the non-local part of the GTH pseudopotential:

                   l      r(l)      h(i,j,l)

                   0    0.487435    6.959938   -1.888836
                                   -1.888836    2.438477
                   1    0.562189    1.865299

  5. Atomic kind: CL                                    Number of atoms:      15

     Orbital Basis Set                                        DZVP-MOLOPT-SR-GTH

       Number of orbital shell sets:                                           1
       Number of orbital shells:                                               5
       Number of primitive Cartesian functions:                                4
       Number of Cartesian basis functions:                                   14
       Number of spherical basis functions:                                   13
       Norm type:                                                              2

       Normalised Cartesian orbitals:

                        Set   Shell   Orbital            Exponent    Coefficient

                          1       1    2s                2.379078       0.403013
                                                         1.470718       0.018727
                                                         0.461213      -0.342539
                                                         0.150015      -0.058490

                          1       2    3s                2.379078       0.556232
                                                         1.470718       0.430620
                                                         0.461213      -0.745502
                                                         0.150015       0.311453

                          1       3    3px               2.379078       0.636316
                                                         1.470718      -0.580855
                                                         0.461213      -0.325785
                                                         0.150015      -0.051764
                          1       3    3py               2.379078       0.636316
                                                         1.470718      -0.580855
                                                         0.461213      -0.325785
                                                         0.150015      -0.051764
                          1       3    3pz               2.379078       0.636316
                                                         1.470718      -0.580855
                                                         0.461213      -0.325785
                                                         0.150015      -0.051764

                          1       4    4px               2.379078       0.838044
                                                         1.470718      -0.610657
                                                         0.461213      -0.295677
                                                         0.150015       0.171492
                          1       4    4py               2.379078       0.838044
                                                         1.470718      -0.610657
                                                         0.461213      -0.295677
                                                         0.150015       0.171492
                          1       4    4pz               2.379078       0.838044
                                                         1.470718      -0.610657
                                                         0.461213      -0.295677
                                                         0.150015       0.171492

                          1       5    4dx2              2.379078       0.509952
                                                         1.470718       0.891639
                                                         0.461213       0.295732
                                                         0.150015       0.008371
                          1       5    4dxy              2.379078       0.883263
                                                         1.470718       1.544364
                                                         0.461213       0.512223
                                                         0.150015       0.014498
                          1       5    4dxz              2.379078       0.883263
                                                         1.470718       1.544364
                                                         0.461213       0.512223
                                                         0.150015       0.014498
                          1       5    4dy2              2.379078       0.509952
                                                         1.470718       0.891639
                                                         0.461213       0.295732
                                                         0.150015       0.008371
                          1       5    4dyz              2.379078       0.883263
                                                         1.470718       1.544364
                                                         0.461213       0.512223
                                                         0.150015       0.014498
                          1       5    4dz2              2.379078       0.509952
                                                         1.470718       0.891639
                                                         0.461213       0.295732
                                                         0.150015       0.008371

     Auxiliary Fit Basis Set                                               cFIT3

       Number of orbital shell sets:                                           4
       Number of orbital shells:                                               4
       Number of primitive Cartesian functions:                                6
       Number of Cartesian basis functions:                                    8
       Number of spherical basis functions:                                    8
       Norm type:                                                              2

       Normalised Cartesian orbitals:

                        Set   Shell   Orbital            Exponent    Coefficient

                          1       1    1s                0.185870       0.201752

                          2       1    1s                0.520410      -0.574430
                                                         2.254030       0.789648

                          3       1    1px               0.179260       0.166263
                          3       1    1py               0.179260       0.166263
                          3       1    1pz               0.179260       0.166263

                          4       1    1px               0.634950       0.821539
                                                         4.723900      -0.536813
                          4       1    1py               0.634950       0.821539
                                                         4.723900      -0.536813
                          4       1    1pz               0.634950       0.821539
                                                         4.723900      -0.536813

       Atomic covalent radius [Angstrom]:                                  0.990

       Atomic van der Waals radius [Angstrom]:                             1.750

     GTH Potential information for                                    GTH-PBE-q7

       Description:                       Goedecker-Teter-Hutter pseudopotential
                                           Goedecker et al., PRB 54, 1703 (1996)
                                          Hartwigsen et al., PRB 58, 3641 (1998)
                                                      Krack, TCA 114, 145 (2005)

       Gaussian exponent of the core charge distribution:               2.974420
       Electronic configuration (s p d ...):                               2   5

       Parameters of the local part of the GTH pseudopotential:

                          rloc        C1          C2          C3          C4
                        0.410000   -6.392082

       Parameters of the non-local part of the GTH pseudopotential:

                   l      r(l)      h(i,j,l)

                   0    0.339539   15.218990   -4.934523
                                   -4.934523    6.370442
                   1    0.378474    4.338775

  6. Atomic kind: O                                     Number of atoms:     192

     Orbital Basis Set                                        DZVP-MOLOPT-SR-GTH

       Number of orbital shell sets:                                           1
       Number of orbital shells:                                               5
       Number of primitive Cartesian functions:                                5
       Number of Cartesian basis functions:                                   14
       Number of spherical basis functions:                                   13
       Norm type:                                                              2

       Normalised Cartesian orbitals:

                        Set   Shell   Orbital            Exponent    Coefficient

                          1       1    2s               10.389228       0.396646
                                                         3.849621       0.208811
                                                         1.388401      -0.301641
                                                         0.496955      -0.274061
                                                         0.162492      -0.033677

                          1       2    3s               10.389228       0.303673
                                                         3.849621       0.240943
                                                         1.388401      -0.313066
                                                         0.496955      -0.043055
                                                         0.162492       0.213991

                          1       3    3px              10.389228      -1.530415
                                                         3.849621      -1.371928
                                                         1.388401      -0.761951
                                                         0.496955      -0.253695
                                                         0.162492      -0.035541
                          1       3    3py              10.389228      -1.530415
                                                         3.849621      -1.371928
                                                         1.388401      -0.761951
                                                         0.496955      -0.253695
                                                         0.162492      -0.035541
                          1       3    3pz              10.389228      -1.530415
                                                         3.849621      -1.371928
                                                         1.388401      -0.761951
                                                         0.496955      -0.253695
                                                         0.162492      -0.035541

                          1       4    4px              10.389228      -0.565392
                                                         3.849621      -0.038231
                                                         1.388401      -0.382373
                                                         0.496955       0.179070
                                                         0.162492       0.122714
                          1       4    4py              10.389228      -0.565392
                                                         3.849621      -0.038231
                                                         1.388401      -0.382373
                                                         0.496955       0.179070
                                                         0.162492       0.122714
                          1       4    4pz              10.389228      -0.565392
                                                         3.849621      -0.038231
                                                         1.388401      -0.382373
                                                         0.496955       0.179070
                                                         0.162492       0.122714

                          1       5    4dx2             10.389228       1.867377
                                                         3.849621       0.670994
                                                         1.388401       1.353441
                                                         0.496955       0.273538
                                                         0.162492       0.006620
                          1       5    4dxy             10.389228       3.234392
                                                         3.849621       1.162195
                                                         1.388401       2.344229
                                                         0.496955       0.473781
                                                         0.162492       0.011466
                          1       5    4dxz             10.389228       3.234392
                                                         3.849621       1.162195
                                                         1.388401       2.344229
                                                         0.496955       0.473781
                                                         0.162492       0.011466
                          1       5    4dy2             10.389228       1.867377
                                                         3.849621       0.670994
                                                         1.388401       1.353441
                                                         0.496955       0.273538
                                                         0.162492       0.006620
                          1       5    4dyz             10.389228       3.234392
                                                         3.849621       1.162195
                                                         1.388401       2.344229
                                                         0.496955       0.473781
                                                         0.162492       0.011466
                          1       5    4dz2             10.389228       1.867377
                                                         3.849621       0.670994
                                                         1.388401       1.353441
                                                         0.496955       0.273538
                                                         0.162492       0.006620

     Auxiliary Fit Basis Set                                               cFIT3

       Number of orbital shell sets:                                           4
       Number of orbital shells:                                               4
       Number of primitive Cartesian functions:                                6
       Number of Cartesian basis functions:                                    8
       Number of spherical basis functions:                                    8
       Norm type:                                                              2

       Normalised Cartesian orbitals:

                        Set   Shell   Orbital            Exponent    Coefficient

                          1       1    1s                0.270610       0.267404

                          2       1    1s                0.884930       0.707256
                                                         8.504090      -0.906597

                          3       1    1px               0.310400       0.330250
                          3       1    1py               0.310400       0.330250
                          3       1    1pz               0.310400       0.330250

                          4       1    1px               1.382560       1.756990
                                                         6.082640       3.818529
                          4       1    1py               1.382560       1.756990
                                                         6.082640       3.818529
                          4       1    1pz               1.382560       1.756990
                                                         6.082640       3.818529

       Atomic covalent radius [Angstrom]:                                  0.730

       Atomic van der Waals radius [Angstrom]:                             1.520

     GTH Potential information for                                    GTH-PBE-q6

       Description:                       Goedecker-Teter-Hutter pseudopotential
                                           Goedecker et al., PRB 54, 1703 (1996)
                                          Hartwigsen et al., PRB 58, 3641 (1998)
                                                      Krack, TCA 114, 145 (2005)

       Gaussian exponent of the core charge distribution:               8.360253
       Electronic configuration (s p d ...):                               2   4

       Parameters of the local part of the GTH pseudopotential:

                          rloc        C1          C2          C3          C4
                        0.244554  -16.667215    2.487311

       Parameters of the non-local part of the GTH pseudopotential:

                   l      r(l)      h(i,j,l)

                   0    0.220956   18.337458
                   1    0.211332


 MOLECULE KIND INFORMATION


 All atoms are their own molecule, skipping detailed information


 TOTAL NUMBERS AND MAXIMUM NUMBERS

  Total number of            - Atomic kinds:                                   6
                             - Atoms:                                        367
                             - Shell sets:                                   367
                             - Shells:                                      1707
                             - Primitive Cartesian functions:               1596
                             - Cartesian basis functions:                   4562
                             - Spherical basis functions:                   4259

  Maximum angular momentum of- Orbital basis functions:                        2
                             - Local part of the GTH pseudopotential:          2
                             - Non-local part of the GTH pseudopotential:      2

  AUX_FIT ADMM-Basis: 
  Total number of            - Shell sets:                                  1468
                             - Shells:                                      1532
                             - Primitive Cartesian functions:               2330
                             - Cartesian basis functions:                   3000
                             - Spherical basis functions:                   3000
                               Maximum angular momentum                        1


 MODULE QUICKSTEP: ATOMIC COORDINATES IN ANGSTROM

   Atom Kind Element         X             Y             Z       Z(eff)     Mass
      1    1 NA   11      1.532481      1.532481      1.532481   1.0000  22.9898
      2    2 NA   11      1.569696      1.568710     -7.257513   1.0000  22.9898
[...]
 flops     5 x    13 x   221          41230537920       0.0%    100.0%      0.0%
 flops    13 x     5 x   220          41873145600       0.0%    100.0%      0.0%
 flops    13 x     5 x   221          42063478080       0.0%    100.0%      0.0%
 flops  1063 x   220 x  1063          43752399680       0.0%    100.0%      0.0%
 flops  1063 x   221 x  1063          43951274224       0.0%    100.0%      0.0%
 flops  1063 x   224 x  1065          44631713280       0.0%    100.0%      0.0%
 flops  1065 x   224 x  1063          44631713280       0.0%    100.0%      0.0%
 flops  1063 x   224 x  1068          44757436416       0.0%    100.0%      0.0%
 flops  1068 x   224 x  1063          44757436416       0.0%    100.0%      0.0%
 flops  1063 x   192 x   192          51412598784       0.0%    100.0%      0.0%
 flops   192 x   192 x  1063          53293547520       0.0%    100.0%      0.0%
 flops  1063 x   192 x  1065          76511508480       0.0%    100.0%      0.0%
 flops  1065 x   192 x  1063          76511508480       0.0%    100.0%      0.0%
 flops  1063 x   192 x  1068          76727033856       0.0%    100.0%      0.0%
 flops  1068 x   192 x  1063          76727033856       0.0%    100.0%      0.0%
 flops     5 x    13 x   224          83580456960       0.0%    100.0%      0.0%
 flops    13 x     5 x   224          85268951040       0.0%    100.0%      0.0%
 flops  1063 x   224 x  1063          89095795712       0.0%    100.0%      0.0%
 flops     5 x    32 x     5         122021478400       0.0%    100.0%      0.0%
 flops     5 x    13 x   192         143280783360       0.0%    100.0%      0.0%
 flops    13 x     5 x   192         146175344640       0.0%    100.0%      0.0%
 flops  1063 x   192 x  1063         152735649792       0.0%    100.0%      0.0%
 flops    13 x    10 x    13         188689209800       0.0%    100.0%      0.0%
 flops    13 x    28 x    13         229625173960       0.0%    100.0%      0.0%
 flops    13 x    29 x    13         237163604860       0.0%    100.0%      0.0%
 flops    13 x    13 x   220         381135451840       0.0%    100.0%      0.0%
 flops    13 x    13 x   221         382867885712       0.0%    100.0%      0.0%
 flops     5 x    13 x    13         388261348670       0.0%    100.0%      0.0%
 flops    13 x     5 x    13         390790778430       0.0%    100.0%      0.0%
 flops    13 x    13 x     5         396666120890       0.0%    100.0%      0.0%
 flops    13 x    13 x   224         776130374656       0.0%    100.0%      0.0%
 flops    13 x    13 x   192        1330509213696       0.0%    100.0%      0.0%
 flops    13 x    32 x     5        1487136768000       0.0%    100.0%      0.0%
 flops     5 x    32 x    13        1487136768000       0.0%    100.0%      0.0%
 flops    13 x    13 x    13        4706617250842       0.0%    100.0%      0.0%
 flops    13 x    32 x    13       13610477083840       0.0%    100.0%      0.0%
 flops inhomo. stacks                           0       0.0%      0.0%      0.0%
 flops total                        29.604655E+12       0.0%    100.0%      0.0%
 flops max/rank                      2.006801E+12       0.0%    100.0%      0.0%
 matmuls inhomo. stacks                         0       0.0%      0.0%      0.0%
 matmuls total                         4216663521       0.0%    100.0%      0.0%
 number of processed stacks               4568208       0.0%    100.0%      0.0%
 average stack size                                     0.0     923.0       0.0
 marketing flops                    41.567839E+12
 -------------------------------------------------------------------------------
 # multiplications                           6976
 max memory usage/rank               2.676068E+09
 # max total images/rank                        1
 # max 3D layers                                1
 # MPI messages exchanged                  669696
 MPI messages size (bytes):
  total size                       769.133445E+09
  min size                           0.000000E+00
  max size                           9.295872E+06
  average size                       1.148482E+06
 MPI breakdown and total messages size (bytes):
             size <=      128              397020                        0
       128 < size <=     8192               16020                 12816000
      8192 < size <=    32768                5184                 86878080
     32768 < size <=   131072               46368               3950157168
    131072 < size <=  4194304              124320             186451026240
   4194304 < size <= 16777216               80784             578620802808
  16777216 < size                               0                        0
 -------------------------------------------------------------------------------
 -                                                                             -
 -                      DBCSR MESSAGE PASSING PERFORMANCE                      -
 -                                                                             -
 -------------------------------------------------------------------------------
 ROUTINE             CALLS      AVE VOLUME [Bytes]
 MP_Bcast              338                     12.
 MP_Allreduce        33813                      9.
 MP_Alltoall         41139                 452655.
 MP_ISend           111512                 449041.
 MP_IRecv           111512                 446279.
 -------------------------------------------------------------------------------

 -------------------------------------------------------------------------------
 -                                                                             -
 -                                DBM STATISTICS                               -
 -                                                                             -
 -------------------------------------------------------------------------------
    M  x    N  x    K                                          COUNT     PERCENT
 -------------------------------------------------------------------------------

 -------------------------------------------------------------------------------
 -                                                                             -
 -                                GRID STATISTICS                              -
 -                                                                             -
 -------------------------------------------------------------------------------
 LP    KERNEL             BACKEND                              COUNT     PERCENT
 4     collocate ortho    CPU                               30262264      22.51%
 4     integrate ortho    CPU                               28213724      20.99%
 3     collocate ortho    CPU                               27927888      20.77%
 3     integrate ortho    CPU                               26224968      19.51%
 2     collocate ortho    CPU                                6579660       4.89%
 1     collocate ortho    CPU                                5174680       3.85%
 2     integrate ortho    CPU                                4167240       3.10%
 0     collocate ortho    CPU                                3034540       2.26%
 6     collocate ortho    CPU                                1465648       1.09%
 5     collocate ortho    CPU                                1362336       1.01%
 0     collocate general  CPU                                  11744       0.01%
 0     integrate general  CPU                                  11744       0.01%
 -------------------------------------------------------------------------------

 MEMORY| Estimated peak process memory [MiB]                                2570

 -------------------------------------------------------------------------------
 ----                             MULTIGRID INFO                            ----
 -------------------------------------------------------------------------------
 count for grid        1:         786772          cutoff [a.u.]          200.00
 count for grid        2:        1099761          cutoff [a.u.]           50.00
 count for grid        3:         824353          cutoff [a.u.]           12.50
 count for grid        4:         232528          cutoff [a.u.]            3.12
 count for grid        5:              0          cutoff [a.u.]            0.78
 total gridlevel count  :        2943414

 -------------------------------------------------------------------------------
 -                                                                             -
 -                         MESSAGE PASSING PERFORMANCE                         -
 -                                                                             -
 -------------------------------------------------------------------------------

 ROUTINE             CALLS      AVE VOLUME [Bytes]
 MP_Group                5
 MP_Bcast             7689                 196535.
 MP_Allreduce        18057                    861.
 MP_Sync               393
 MP_Alltoall          4112               25483900.
 MP_SendRecv         13920                 263280.
 MP_ISendRecv         9240                 263280.
 MP_Wait             18380
 MP_comm_split         263
 MP_ISend             7800                1723776.
 MP_IRecv             7970                1687008.
 MP_Write_All           49                1516800.
 -------------------------------------------------------------------------------


 -------------------------------------------------------------------------------
 -                                                                             -
 -                           R E F E R E N C E S                               -
 -                                                                             -
 -------------------------------------------------------------------------------
 
 CP2K version 2023.2, the CP2K developers group (2023).
 CP2K is freely available from https://www.cp2k.org/ .

 Kuehne,Thomas D.; Iannuzzi,Marcella; Del Ben,Mauro;
 Rybkin,Vladimir V.; Seewald,Patrick; Stein,Frederick; Laino,Teodoro;
 Khaliullin,Rustam Z.; Schuett,Ole; Schiffmann,Florian; Golze,Dorothea;
 Wilhelm,Jan; Chulkov,Sergey; Bani-Hashemian,Mohammad Hossein;
 Weber,Valery; Borstnik,Urban; Taillefumier,Mathieu;
 Jakobovits,Alice Shoshana; Lazzaro,Alfio; Pabst,Hans; Mueller,Tiziano;
 Schade,Robert; Guidon,Manuel; Andermatt,Samuel; Holmberg,Nico;
 Schenter,Gregory K.; Hehn,Anna; Bussy,Augustin; Belleflamme,Fabian;
 Tabacchi,Gloria; Gloess,Andreas; Lass,Michael; Bethune,Iain;
 Mundy,Christopher J.; Plessl,Christian; Watkins,Matt;
 VandeVondele,Joost; Krack,Matthias; Hutter,Juerg. 
 The Journal of Chemical Physics, 152 (19), (2020). 
 CP2K: An electronic structure and molecular dynamics software package -
 Quickstep: Efficient and accurate electronic structure calculations.
 https://doi.org/10.1063/5.0007045

 Schuett, Ole; Messmer, Peter; Hutter, Juerg; VandeVondele, Joost. 
 Electronic Structure Calculations on Graphics Processing Units, John
 Wiley & Sons, Ltd, 173-190 (2016). 
 GPU-Accelerated Sparse Matrix-Matrix Multiplication for
 Linear Scaling Density Functional Theory.
 https://doi.org/10.1002/9781118670712.ch8

 Heinecke, A; Henry, G; Hutchinson, M; Pabst, H. 
 Proceedings of Intl. Supercomputing Conference, 981-991 (2016). 
 LIBXSMM: Accelerating Small Matrix Multiplications
 by Runtime Code Generation.
 https://doi.org/10.1109/SC.2016.83

 Borstnik, U; VandeVondele, J; Weber, V; Hutter, J. 
 PARALLEL COMPUTING, 40 (5-6), 47-58 (2014). 
 Sparse matrix multiplication: The distributed block-compressed sparse
 row library.
 https://doi.org/10.1016/j.parco.2014.03.012

 Hutter, J; Iannuzzi, M; Schiffmann, F; VandeVondele, J. 
 WIREs Comput Mol Sci., 4 (1), 15-25 (2014). 
 CP2K: atomistic simulations of condensed matter systems.
 https://doi.org/10.1002/wcms.1159

 Marek, A; Blum, V; Johanni, R; Havu, V; Lang, B; Auckenthaler, T;
 Heinecke, A; Bungartz, H; Lederer, H. 
 Journal of Physics: Condensed Matter, 26 (21), (2014). 
 The ELPA library: scalable parallel eigenvalue solutions for
 electronic structure
 theory and computational science.
 https://doi.org/10.1088/0953-8984/26/21/213201

 Guidon, M; Hutter, J; VandeVondele, J. 
 JOURNAL OF CHEMICAL THEORY AND COMPUTATION, 6 (8), 2348-2364 (2010). 
 Auxiliary Density Matrix Methods for Hartree-Fock Exchange Calculations.
 https://doi.org/10.1021/ct1002225

 VandeVondele, J; Hutter, J. 
 JOURNAL OF CHEMICAL PHYSICS, 127 (11), 114105 (2007). 
 Gaussian basis sets for accurate calculations on molecular systems in
 gas and condensed phases.
 https://doi.org/10.1063/1.2770708

 Krack, M. 
 THEORETICAL CHEMISTRY ACCOUNTS, 114 (1-3), 145-152 (2005). 
 Pseudopotentials for H to Kr optimized for gradient-corrected
 exchange-correlation functionals.
 https://doi.org/10.1007/s00214-005-0655-y

 VandeVondele, J; Krack, M; Mohamed, F; Parrinello, M; Chassaing, T;
 Hutter, J. COMPUTER PHYSICS COMMUNICATIONS, 167 (2), 103-128 (2005). 
 QUICKSTEP: Fast and accurate density functional calculations using a
 mixed Gaussian and plane waves approach.
 https://doi.org/10.1016/j.cpc.2004.12.014

 Frigo, M; Johnson, SG. 
 PROCEEDINGS OF THE IEEE, 93 (2), 216-231 (2005). 
 The design and implementation of FFTW3.
 https://doi.org/10.1109/JPROC.2004.840301

 Iannuzzi, M; Chassaing, T; Wallman, T; Hutter, J. 
 CHIMIA, 59 (7-8), 499-503 (2005). 
 Ground and excited state density functional calculations with the
 Gaussian and augmented-plane-wave method.
 https://doi.org/10.2533/000942905777676164

 VandeVondele, J; Hutter, J. 
 JOURNAL OF CHEMICAL PHYSICS, 118 (10), 4365-4369 (2003). 
 An efficient orbital transformation method for electronic structure
 calculations.
 https://doi.org/10.1063/1.1543154

 Martin,Richard L.. 
 The Journal of Chemical Physics, 118 (11), 4775-4777 (2003). 
 Natural transition orbitals.
 https://doi.org/10.1063/1.1558471

 Hartwigsen, C; Goedecker, S; Hutter, J. 
 PHYSICAL REVIEW B, 58 (7), 3641-3662 (1998). 
 Relativistic separable dual-space Gaussian pseudopotentials from H to Rn.
 https://doi.org/10.1103/PhysRevB.58.3641

 Lippert, G; Hutter, J; Parrinello, M. 
 MOLECULAR PHYSICS, 92 (3), 477-487 (1997). 
 A hybrid Gaussian and plane wave density functional scheme.
 https://doi.org/10.1080/002689797170220

 Perdew, JP; Burke, K; Ernzerhof, M. 
 PHYSICAL REVIEW LETTERS, 77 (18), 3865-3868 (1996). 
 Generalized gradient approximation made simple.
 https://doi.org/10.1103/PhysRevLett.77.3865

 Goedecker, S; Teter, M; Hutter, J. 
 PHYSICAL REVIEW B, 54 (3), 1703-1710 (1996). 
 Separable dual-space Gaussian pseudopotentials.
 https://doi.org/10.1103/PhysRevB.54.1703


 -------------------------------------------------------------------------------
 -                                                                             -
 -                                T I M I N G                                  -
 -                                                                             -
 -------------------------------------------------------------------------------
 SUBROUTINE                       CALLS  ASD         SELF TIME        TOTAL TIME
                                MAXIMUM       AVERAGE  MAXIMUM  AVERAGE  MAXIMUM
 CP2K                                 1  1.0    0.091    0.148 3927.231 3927.254
 qs_energies                          1  2.0    0.000    0.000 3924.751 3924.806
 qs_energies_properties               1  3.0    0.000    0.000 2937.636 2937.688
 tddfpt                               1  4.0    0.001    0.001 2937.636 2937.688
 tddfpt_energies                      1  5.0    0.000    0.001 2897.055 2897.069
 tddfpt_davidson_solver               2  6.0    0.019    0.022 2540.612 2540.627
 tddfpt_compute_Aop_evects            7  7.0    0.000    0.000 2363.299 2363.332
 fhxc_kernel                          7  8.0    0.011    0.013 2314.341 2314.374
 calculate_rho_elec                 192  9.2    2.584    2.585 1270.938 1271.276
 grid_collocate_task_list           192 10.2 1128.516 1133.659 1128.516 1133.659
 qs_rho_update_rho_low               82  8.4    0.002    0.002 1106.003 1106.284
 integrate_v_rspace                 154  9.0    0.015    0.017 1027.127 1027.401
 grid_integrate_task_list           154 10.0  949.942  956.037  949.942  956.037
 scf_env_do_scf                       1  3.0    0.000    0.001  588.867  588.871
 pw_transfer                       3532 11.0    0.468    0.505  481.179  483.309
 fft_wrap_pw1pw2                   3351 12.0    0.063    0.065  479.529  481.716
 fft_wrap_pw1pw2_200               1807 13.4   44.179   45.144  465.148  465.952
 cp_fm_diag_elpa                     95  7.6    0.002    0.002  410.310  410.328
 cp_fm_diag_elpa_base                95  8.6  407.475  407.929  410.256  410.263
 dbcsr_multiply_generic            6976  8.2    0.861    0.894  401.184  408.078
 scf_post_calculation_gpw             1  3.0    0.000    0.000  371.997  372.000
 multiply_cannon                   6976  9.2    1.362    1.445  341.781  351.961
 fft3d_ps                          3351 14.0  262.753  264.569  337.464  344.349
 multiply_cannon_loop              6976 10.2    0.546    0.568  326.055  336.842
 tddfpt_apply_xc_analytic            70  9.0    3.256    3.380  324.268  324.537
 tddfpt_print_nto_analysis            1  6.0    0.190    0.245  317.740  317.743
 multiply_cannon_multrec          27904 11.2  279.817  307.272  280.047  307.512
 scf_env_do_scf_inner_loop           10  4.0    0.001    0.002  307.458  307.474
 cp_fm_geeig                         20  7.0    0.004    0.006  290.553  290.580
 init_scf_loop                        4  4.0    0.003    0.003  281.354  281.356
 xc_pw_derive                       948 11.0    0.019    0.021  259.155  261.103
 qs_ks_update_qs_env                 14  5.0    0.000    0.000  255.829  255.833
 rebuild_ks_matrix                   10  6.0    0.000    0.000  255.636  255.639
 qs_ks_build_kohn_sham_matrix        10  7.0    0.006    0.008  255.635  255.639
 cp_dbcsr_sm_fm_multiply            655  8.2    0.058    0.064  225.900  226.334
 xc_calc_2nd_deriv_analytical        70 10.0   39.222   39.548  205.904  206.040
 cp_dbcsr_sm_fm_multiply_core       655  9.2    0.005    0.006  192.372  198.588
 xc_pw_divergence                   154 10.9    0.011    0.012  171.524  172.956
 prepare_preconditioner               4  5.0    0.000    0.000  151.723  151.736
 make_preconditioner                  8  6.0    0.000    0.000  146.171  146.188
 density_rs2pw                      192 10.2    0.027    0.029  136.452  143.053
 make_full_all                        8  7.0    0.011    0.016  140.280  140.311
 parallel_gemm_fm                   854  7.8    0.004    0.004  135.265  135.663
 parallel_gemm_fm_cosma             854  8.8  135.260  135.659  135.260  135.659
 write_available_results              1  4.0    0.000    0.000  104.798  104.802
 write_mo_free_results                1  5.0    0.263    0.295  104.377  104.382
 qs_scf_post_elf                      1  4.0    0.055    0.068   96.602   96.602
 qs_elf_calc                          1  5.0    0.212    0.217   94.389   94.392
 energy_windows                       1  6.0    0.006    0.010   93.810   93.813
 sum_up_and_integrate                 7  8.0    0.135    0.143   93.643   93.653
 admm_mo_calc_rho_aux                10  8.0    0.036    0.036   79.119   79.153
 -------------------------------------------------------------------------------

 The number of warnings for this run is : 5
 
 -------------------------------------------------------------------------------
  **** **** ******  **  PROGRAM ENDED AT                 2024-12-05 17:21:02.046
 ***** ** ***  *** **   PROGRAM RAN ON                s92node84.psmn.ens-lyon.fr
 **    ****   ******    PROGRAM RAN BY                                   rrullan
 ***** **    ** ** **   PROGRAM PROCESS ID                                103210
  **** **  *******  **  PROGRAM STOPPED IN                   /tmp/tmp.LeQPeEyPyB
